#q:  0.123715E-10
Variables=X,Y,Z,P,U,V,W,Div
Zone  i = 195 j =   5 k =  35
 0.3205000E-05 -0.400000E-03 -0.858200E-04  0.192793E+02  0.602422E-05 -0.600619E-13 -0.137388E-06 -0.544693E+01
 0.9615000E-05 -0.400000E-03 -0.862350E-04  0.192651E+02  0.598449E-05 -0.594844E-13 -0.401266E-06 -0.566665E+01
 0.1602500E-04 -0.400000E-03 -0.870650E-04  0.192507E+02  0.590843E-05 -0.585807E-13 -0.657932E-06 -0.566546E+01
 0.2243500E-04 -0.400000E-03 -0.883100E-04  0.192363E+02  0.579764E-05 -0.574185E-13 -0.902800E-06 -0.566381E+01
 0.2884500E-04 -0.400000E-03 -0.899650E-04  0.192218E+02  0.565583E-05 -0.560609E-13 -0.113212E-05 -0.566167E+01
 0.3525500E-04 -0.400000E-03 -0.920300E-04  0.192071E+02  0.548592E-05 -0.545443E-13 -0.134242E-05 -0.565909E+01
 0.4166500E-04 -0.400000E-03 -0.945050E-04  0.191922E+02  0.529133E-05 -0.528974E-13 -0.153098E-05 -0.565609E+01
 0.4807500E-04 -0.400000E-03 -0.973875E-04  0.191772E+02  0.507652E-05 -0.511517E-13 -0.169585E-05 -0.565278E+01
 0.5448500E-04 -0.400000E-03 -0.100672E-03  0.191620E+02  0.484701E-05 -0.493460E-13 -0.183599E-05 -0.564912E+01
 0.6089500E-04 -0.400000E-03 -0.104357E-03  0.191466E+02  0.460641E-05 -0.474969E-13 -0.195104E-05 -0.564523E+01
 0.6730500E-04 -0.400000E-03 -0.108437E-03  0.191311E+02  0.436035E-05 -0.456449E-13 -0.204156E-05 -0.564111E+01
 0.7371500E-04 -0.400000E-03 -0.112910E-03  0.191154E+02  0.411165E-05 -0.437999E-13 -0.210823E-05 -0.563674E+01
 0.8012500E-04 -0.400000E-03 -0.117770E-03  0.190994E+02  0.386470E-05 -0.419925E-13 -0.215276E-05 -0.563232E+01
 0.8653500E-04 -0.400000E-03 -0.123010E-03  0.190834E+02  0.362318E-05 -0.402462E-13 -0.217721E-05 -0.562775E+01
 0.9294500E-04 -0.400000E-03 -0.128630E-03  0.190671E+02  0.338846E-05 -0.385637E-13 -0.218314E-05 -0.562304E+01
 0.9935500E-04 -0.400000E-03 -0.134620E-03  0.190508E+02  0.316361E-05 -0.369673E-13 -0.217336E-05 -0.561845E+01
 0.1057650E-03 -0.400000E-03 -0.140970E-03  0.190343E+02  0.295074E-05 -0.354708E-13 -0.215046E-05 -0.561377E+01
 0.1121750E-03 -0.400000E-03 -0.147680E-03  0.190177E+02  0.274949E-05 -0.340646E-13 -0.211584E-05 -0.560901E+01
 0.1185850E-03 -0.400000E-03 -0.154745E-03  0.190010E+02  0.256003E-05 -0.327477E-13 -0.207143E-05 -0.560431E+01
 0.1250000E-03 -0.400000E-03 -0.162150E-03  0.189842E+02  0.238462E-05 -0.315434E-13 -0.202067E-05 -0.560037E+01
 0.1314150E-03 -0.400000E-03 -0.169890E-03  0.189675E+02  0.222153E-05 -0.304291E-13 -0.196409E-05 -0.559517E+01
 0.1378250E-03 -0.400000E-03 -0.177960E-03  0.189507E+02  0.206930E-05 -0.293927E-13 -0.190229E-05 -0.559075E+01
 0.1442350E-03 -0.400000E-03 -0.186350E-03  0.189340E+02  0.192832E-05 -0.284410E-13 -0.183737E-05 -0.558630E+01
 0.1506450E-03 -0.400000E-03 -0.195050E-03  0.189174E+02  0.179792E-05 -0.275698E-13 -0.177044E-05 -0.558211E+01
 0.1570550E-03 -0.400000E-03 -0.204050E-03  0.189009E+02  0.167741E-05 -0.267739E-13 -0.170233E-05 -0.557791E+01
 0.1634650E-03 -0.400000E-03 -0.213345E-03  0.188846E+02  0.156544E-05 -0.260415E-13 -0.163320E-05 -0.557384E+01
 0.1698750E-03 -0.400000E-03 -0.222920E-03  0.188685E+02  0.146167E-05 -0.253738E-13 -0.156408E-05 -0.557004E+01
 0.1762850E-03 -0.400000E-03 -0.232767E-03  0.188526E+02  0.136510E-05 -0.247615E-13 -0.149502E-05 -0.556618E+01
 0.1826950E-03 -0.400000E-03 -0.242882E-03  0.188370E+02  0.127482E-05 -0.242004E-13 -0.142629E-05 -0.556257E+01
 0.1891050E-03 -0.400000E-03 -0.253245E-03  0.188217E+02  0.119054E-05 -0.236878E-13 -0.135832E-05 -0.555921E+01
 0.1955150E-03 -0.400000E-03 -0.263850E-03  0.188068E+02  0.111131E-05 -0.232144E-13 -0.129101E-05 -0.555570E+01
 0.2019250E-03 -0.400000E-03 -0.274688E-03  0.187923E+02  0.103663E-05 -0.227789E-13 -0.122452E-05 -0.555268E+01
 0.2083350E-03 -0.400000E-03 -0.285743E-03  0.187782E+02  0.966532E-06 -0.223868E-13 -0.115959E-05 -0.554966E+01
 0.2147450E-03 -0.400000E-03 -0.297005E-03  0.187647E+02  0.900125E-06 -0.220233E-13 -0.109560E-05 -0.554687E+01
 0.2211550E-03 -0.400000E-03 -0.308460E-03  0.187517E+02  0.837462E-06 -0.216943E-13 -0.103319E-05 -0.554421E+01
 0.2275650E-03 -0.400000E-03 -0.320100E-03  0.187392E+02  0.778032E-06 -0.213931E-13 -0.972176E-06 -0.554170E+01
 0.2339750E-03 -0.400000E-03 -0.331915E-03  0.187274E+02  0.721483E-06 -0.211154E-13 -0.912507E-06 -0.553933E+01
 0.2403850E-03 -0.400000E-03 -0.343890E-03  0.187162E+02  0.667814E-06 -0.208634E-13 -0.854502E-06 -0.553724E+01
 0.2467950E-03 -0.400000E-03 -0.356010E-03  0.187056E+02  0.616991E-06 -0.206381E-13 -0.798397E-06 -0.553529E+01
 0.2532050E-03 -0.400000E-03 -0.368265E-03  0.186957E+02  0.568725E-06 -0.204343E-13 -0.744086E-06 -0.553348E+01
 0.2596150E-03 -0.400000E-03 -0.380645E-03  0.186865E+02  0.522805E-06 -0.202483E-13 -0.691530E-06 -0.553182E+01
 0.2660250E-03 -0.400000E-03 -0.393133E-03  0.186780E+02  0.479347E-06 -0.200848E-13 -0.641038E-06 -0.553050E+01
 0.2724350E-03 -0.400000E-03 -0.405713E-03  0.186701E+02  0.438427E-06 -0.199487E-13 -0.592911E-06 -0.552930E+01
 0.2788450E-03 -0.400000E-03 -0.418380E-03  0.186630E+02  0.399482E-06 -0.198195E-13 -0.546480E-06 -0.552805E+01
 0.2852550E-03 -0.400000E-03 -0.431117E-03  0.186566E+02  0.362717E-06 -0.197086E-13 -0.502193E-06 -0.552727E+01
 0.2916650E-03 -0.400000E-03 -0.443907E-03  0.186508E+02  0.328300E-06 -0.196244E-13 -0.460386E-06 -0.552661E+01
 0.2980750E-03 -0.400000E-03 -0.456745E-03  0.186458E+02  0.295779E-06 -0.195466E-13 -0.420478E-06 -0.552591E+01
 0.3044850E-03 -0.400000E-03 -0.469610E-03  0.186413E+02  0.265310E-06 -0.194878E-13 -0.382834E-06 -0.552572E+01
 0.3108950E-03 -0.400000E-03 -0.482490E-03  0.186375E+02  0.236840E-06 -0.194439E-13 -0.347400E-06 -0.552541E+01
 0.3173050E-03 -0.400000E-03 -0.495378E-03  0.186343E+02  0.210198E-06 -0.194111E-13 -0.314008E-06 -0.552543E+01
 0.3237150E-03 -0.400000E-03 -0.508253E-03  0.186316E+02  0.185508E-06 -0.194010E-13 -0.282911E-06 -0.552570E+01
 0.3301250E-03 -0.400000E-03 -0.521105E-03  0.186295E+02  0.162557E-06 -0.193978E-13 -0.253791E-06 -0.552592E+01
 0.3365350E-03 -0.400000E-03 -0.533922E-03  0.186279E+02  0.141302E-06 -0.194066E-13 -0.226676E-06 -0.552647E+01
 0.3429450E-03 -0.400000E-03 -0.546687E-03  0.186267E+02  0.121770E-06 -0.194368E-13 -0.201662E-06 -0.552726E+01
 0.3493550E-03 -0.400000E-03 -0.559390E-03  0.186260E+02  0.103794E-06 -0.194737E-13 -0.178490E-06 -0.552801E+01
 0.3557650E-03 -0.400000E-03 -0.572015E-03  0.186256E+02  0.873360E-07 -0.195250E-13 -0.157182E-06 -0.552914E+01
 0.3621750E-03 -0.400000E-03 -0.584550E-03  0.186256E+02  0.723250E-07 -0.195880E-13 -0.137648E-06 -0.553028E+01
 0.3685850E-03 -0.400000E-03 -0.596985E-03  0.186259E+02  0.586428E-07 -0.196601E-13 -0.119763E-06 -0.553168E+01
 0.3750000E-03 -0.400000E-03 -0.609305E-03  0.186265E+02  0.463064E-07 -0.197532E-13 -0.103572E-06 -0.553380E+01
 0.3814150E-03 -0.400000E-03 -0.621495E-03  0.186273E+02  0.351831E-07 -0.198554E-13 -0.888882E-07 -0.553502E+01
 0.3878250E-03 -0.400000E-03 -0.633545E-03  0.186283E+02  0.251349E-07 -0.199585E-13 -0.755587E-07 -0.553682E+01
 0.3942350E-03 -0.400000E-03 -0.645440E-03  0.186294E+02  0.161486E-07 -0.200761E-13 -0.635983E-07 -0.553903E+01
 0.4006450E-03 -0.400000E-03 -0.657170E-03  0.186307E+02  0.815804E-08 -0.202028E-13 -0.529033E-07 -0.554111E+01
 0.4070550E-03 -0.400000E-03 -0.668723E-03  0.186321E+02  0.106966E-08 -0.203400E-13 -0.433785E-07 -0.554366E+01
 0.4134650E-03 -0.400000E-03 -0.680082E-03  0.186336E+02 -0.516004E-08 -0.204932E-13 -0.349738E-07 -0.554620E+01
 0.4198750E-03 -0.400000E-03 -0.691242E-03  0.186351E+02 -0.106147E-07 -0.206493E-13 -0.275557E-07 -0.554891E+01
 0.4262850E-03 -0.400000E-03 -0.702187E-03  0.186367E+02 -0.153555E-07 -0.208205E-13 -0.210829E-07 -0.555186E+01
 0.4326950E-03 -0.400000E-03 -0.712910E-03  0.186382E+02 -0.194433E-07 -0.209925E-13 -0.154450E-07 -0.555477E+01
 0.4391050E-03 -0.400000E-03 -0.723398E-03  0.186398E+02 -0.229439E-07 -0.211721E-13 -0.105807E-07 -0.555802E+01
 0.4455150E-03 -0.400000E-03 -0.733637E-03  0.186414E+02 -0.259126E-07 -0.213646E-13 -0.643000E-08 -0.556139E+01
 0.4519250E-03 -0.400000E-03 -0.743620E-03  0.186429E+02 -0.283932E-07 -0.215590E-13 -0.291317E-08 -0.556485E+01
 0.4583350E-03 -0.400000E-03 -0.753333E-03  0.186444E+02 -0.304366E-07 -0.217618E-13  0.265235E-10 -0.556852E+01
 0.4647450E-03 -0.400000E-03 -0.762768E-03  0.186458E+02 -0.320968E-07 -0.219736E-13  0.245073E-08 -0.557229E+01
 0.4711550E-03 -0.400000E-03 -0.771915E-03  0.186472E+02 -0.334057E-07 -0.221859E-13  0.441843E-08 -0.557617E+01
 0.4775650E-03 -0.400000E-03 -0.780765E-03  0.186485E+02 -0.344071E-07 -0.224024E-13  0.597974E-08 -0.558015E+01
 0.4839750E-03 -0.400000E-03 -0.789310E-03  0.186498E+02 -0.351396E-07 -0.226203E-13  0.718405E-08 -0.558426E+01
 0.4903850E-03 -0.400000E-03 -0.797540E-03  0.186510E+02 -0.356377E-07 -0.228407E-13  0.807466E-08 -0.558849E+01
 0.4967950E-03 -0.400000E-03 -0.805450E-03  0.186521E+02 -0.359293E-07 -0.230576E-13  0.869332E-08 -0.559270E+01
 0.5032050E-03 -0.400000E-03 -0.813025E-03  0.186531E+02 -0.360541E-07 -0.232790E-13  0.907576E-08 -0.559728E+01
 0.5096150E-03 -0.400000E-03 -0.820258E-03  0.186541E+02 -0.360303E-07 -0.235024E-13  0.925655E-08 -0.560162E+01
 0.5160250E-03 -0.400000E-03 -0.827148E-03  0.186550E+02 -0.358871E-07 -0.237221E-13  0.926472E-08 -0.560614E+01
 0.5224350E-03 -0.400000E-03 -0.833680E-03  0.186559E+02 -0.356427E-07 -0.239398E-13  0.912787E-08 -0.561072E+01
 0.5288450E-03 -0.400000E-03 -0.839850E-03  0.186567E+02 -0.353179E-07 -0.241546E-13  0.887182E-08 -0.561517E+01
 0.5352550E-03 -0.400000E-03 -0.845655E-03  0.186574E+02 -0.349298E-07 -0.243608E-13  0.851632E-08 -0.561967E+01
 0.5416650E-03 -0.400000E-03 -0.851085E-03  0.186581E+02 -0.345001E-07 -0.245628E-13  0.808118E-08 -0.562416E+01
 0.5480750E-03 -0.400000E-03 -0.856135E-03  0.186587E+02 -0.340424E-07 -0.247577E-13  0.758295E-08 -0.562850E+01
 0.5544850E-03 -0.400000E-03 -0.860800E-03  0.186592E+02 -0.335710E-07 -0.249443E-13  0.703542E-08 -0.563279E+01
 0.5608950E-03 -0.400000E-03 -0.865077E-03  0.186597E+02 -0.330949E-07 -0.251177E-13  0.644999E-08 -0.563684E+01
 0.5673050E-03 -0.400000E-03 -0.868963E-03  0.186602E+02 -0.326310E-07 -0.252800E-13  0.583579E-08 -0.564077E+01
 0.5737150E-03 -0.400000E-03 -0.872450E-03  0.186606E+02 -0.321837E-07 -0.254263E-13  0.520314E-08 -0.564441E+01
 0.5801250E-03 -0.400000E-03 -0.875535E-03  0.186610E+02 -0.317680E-07 -0.255595E-13  0.455889E-08 -0.564783E+01
 0.5865350E-03 -0.400000E-03 -0.878213E-03  0.186614E+02 -0.313941E-07 -0.256808E-13  0.390770E-08 -0.565092E+01
 0.5929450E-03 -0.400000E-03 -0.880483E-03  0.186617E+02 -0.310670E-07 -0.257862E-13  0.325179E-08 -0.565355E+01
 0.5993550E-03 -0.400000E-03 -0.882345E-03  0.186621E+02 -0.307861E-07 -0.258685E-13  0.259522E-08 -0.565583E+01
 0.6057650E-03 -0.400000E-03 -0.883795E-03  0.186624E+02 -0.305633E-07 -0.259330E-13  0.193940E-08 -0.565764E+01
 0.6121750E-03 -0.400000E-03 -0.884830E-03  0.186626E+02 -0.304036E-07 -0.259802E-13  0.128515E-08 -0.565895E+01
 0.6185850E-03 -0.400000E-03 -0.885455E-03  0.186629E+02 -0.303014E-07 -0.260008E-13  0.631722E-09 -0.565974E+01
 0.6250000E-03 -0.400000E-03 -0.885665E-03  0.186632E+02 -0.302649E-07 -0.260010E-13 -0.217160E-10 -0.566046E+01
 0.6314150E-03 -0.400000E-03 -0.885455E-03  0.186635E+02 -0.303015E-07 -0.259852E-13 -0.675183E-09 -0.565974E+01
 0.6378250E-03 -0.400000E-03 -0.884830E-03  0.186638E+02 -0.304038E-07 -0.259494E-13 -0.132868E-08 -0.565894E+01
 0.6442350E-03 -0.400000E-03 -0.883795E-03  0.186640E+02 -0.305637E-07 -0.258874E-13 -0.198304E-08 -0.565764E+01
 0.6506450E-03 -0.400000E-03 -0.882345E-03  0.186643E+02 -0.307867E-07 -0.258083E-13 -0.263902E-08 -0.565579E+01
 0.6570550E-03 -0.400000E-03 -0.880483E-03  0.186647E+02 -0.310676E-07 -0.257117E-13 -0.329578E-08 -0.565366E+01
 0.6634650E-03 -0.400000E-03 -0.878213E-03  0.186650E+02 -0.313949E-07 -0.255922E-13 -0.395192E-08 -0.565075E+01
 0.6698750E-03 -0.400000E-03 -0.875535E-03  0.186654E+02 -0.317689E-07 -0.254573E-13 -0.460337E-08 -0.564787E+01
 0.6762850E-03 -0.400000E-03 -0.872450E-03  0.186658E+02 -0.321847E-07 -0.253109E-13 -0.524793E-08 -0.564437E+01
 0.6826950E-03 -0.400000E-03 -0.868962E-03  0.186662E+02 -0.326321E-07 -0.251518E-13 -0.588093E-08 -0.564086E+01
 0.6891050E-03 -0.400000E-03 -0.865077E-03  0.186667E+02 -0.330961E-07 -0.249771E-13 -0.649550E-08 -0.563666E+01
 0.6955150E-03 -0.400000E-03 -0.860800E-03  0.186672E+02 -0.335723E-07 -0.247919E-13 -0.708132E-08 -0.563282E+01
 0.7019250E-03 -0.400000E-03 -0.856135E-03  0.186677E+02 -0.340438E-07 -0.245941E-13 -0.762927E-08 -0.562847E+01
 0.7083350E-03 -0.400000E-03 -0.851085E-03  0.186683E+02 -0.345016E-07 -0.243883E-13 -0.812794E-08 -0.562413E+01
 0.7147450E-03 -0.400000E-03 -0.845655E-03  0.186690E+02 -0.349314E-07 -0.241760E-13 -0.856354E-08 -0.561963E+01
 0.7211550E-03 -0.400000E-03 -0.839850E-03  0.186697E+02 -0.353195E-07 -0.239599E-13 -0.891953E-08 -0.561514E+01
 0.7275650E-03 -0.400000E-03 -0.833680E-03  0.186705E+02 -0.356444E-07 -0.237357E-13 -0.917607E-08 -0.561067E+01
 0.7339750E-03 -0.400000E-03 -0.827148E-03  0.186714E+02 -0.358888E-07 -0.235090E-13 -0.931343E-08 -0.560620E+01
 0.7403850E-03 -0.400000E-03 -0.820257E-03  0.186723E+02 -0.360321E-07 -0.232807E-13 -0.930579E-08 -0.560144E+01
 0.7467950E-03 -0.400000E-03 -0.813025E-03  0.186733E+02 -0.360559E-07 -0.230493E-13 -0.912553E-08 -0.559729E+01
 0.7532050E-03 -0.400000E-03 -0.805450E-03  0.186743E+02 -0.359312E-07 -0.228201E-13 -0.874363E-08 -0.559266E+01
 0.7596150E-03 -0.400000E-03 -0.797540E-03  0.186754E+02 -0.356396E-07 -0.225959E-13 -0.812554E-08 -0.558845E+01
 0.7660250E-03 -0.400000E-03 -0.789310E-03  0.186766E+02 -0.351414E-07 -0.223687E-13 -0.723548E-08 -0.558421E+01
 0.7724350E-03 -0.400000E-03 -0.780765E-03  0.186779E+02 -0.344089E-07 -0.221442E-13 -0.603173E-08 -0.558010E+01
 0.7788450E-03 -0.400000E-03 -0.771915E-03  0.186792E+02 -0.334075E-07 -0.219216E-13 -0.447099E-08 -0.557611E+01
 0.7852550E-03 -0.400000E-03 -0.762768E-03  0.186806E+02 -0.320986E-07 -0.217036E-13 -0.250386E-08 -0.557233E+01
 0.7916650E-03 -0.400000E-03 -0.753332E-03  0.186820E+02 -0.304384E-07 -0.214863E-13 -0.802275E-10 -0.556833E+01
 0.7980750E-03 -0.400000E-03 -0.743620E-03  0.186835E+02 -0.283950E-07 -0.212785E-13  0.285888E-08 -0.556485E+01
 0.8044850E-03 -0.400000E-03 -0.733638E-03  0.186850E+02 -0.259144E-07 -0.210793E-13  0.637511E-08 -0.556142E+01
 0.8108950E-03 -0.400000E-03 -0.723398E-03  0.186866E+02 -0.229457E-07 -0.208824E-13  0.105252E-07 -0.555783E+01
 0.8173050E-03 -0.400000E-03 -0.712910E-03  0.186882E+02 -0.194450E-07 -0.206987E-13  0.153888E-07 -0.555476E+01
 0.8237150E-03 -0.400000E-03 -0.702187E-03  0.186898E+02 -0.153572E-07 -0.205230E-13  0.210262E-07 -0.555188E+01
 0.8301250E-03 -0.400000E-03 -0.691242E-03  0.186913E+02 -0.106165E-07 -0.203483E-13  0.274984E-07 -0.554872E+01
 0.8365350E-03 -0.400000E-03 -0.680082E-03  0.186928E+02 -0.516179E-08 -0.201892E-13  0.349158E-07 -0.554627E+01
 0.8429450E-03 -0.400000E-03 -0.668723E-03  0.186943E+02  0.106786E-08 -0.200332E-13  0.433198E-07 -0.554348E+01
 0.8493550E-03 -0.400000E-03 -0.657170E-03  0.186957E+02  0.815615E-08 -0.198935E-13  0.528438E-07 -0.554110E+01
 0.8557650E-03 -0.400000E-03 -0.645440E-03  0.186970E+02  0.161466E-07 -0.197646E-13  0.635381E-07 -0.553897E+01
 0.8621750E-03 -0.400000E-03 -0.633545E-03  0.186982E+02  0.251326E-07 -0.196452E-13  0.754977E-07 -0.553677E+01
 0.8685850E-03 -0.400000E-03 -0.621495E-03  0.186991E+02  0.351806E-07 -0.195406E-13  0.888263E-07 -0.553496E+01
 0.8750000E-03 -0.400000E-03 -0.609305E-03  0.186999E+02  0.463035E-07 -0.194369E-13  0.103510E-06 -0.553375E+01
 0.8814150E-03 -0.400000E-03 -0.596985E-03  0.187005E+02  0.586395E-07 -0.193425E-13  0.119700E-06 -0.553162E+01
 0.8878250E-03 -0.400000E-03 -0.584550E-03  0.187008E+02  0.723211E-07 -0.192695E-13  0.137583E-06 -0.553022E+01
 0.8942350E-03 -0.400000E-03 -0.572015E-03  0.187008E+02  0.873313E-07 -0.192060E-13  0.157116E-06 -0.552908E+01
 0.9006450E-03 -0.400000E-03 -0.559390E-03  0.187004E+02  0.103788E-06 -0.191545E-13  0.178423E-06 -0.552795E+01
 0.9070550E-03 -0.400000E-03 -0.546688E-03  0.186997E+02  0.121763E-06 -0.191175E-13  0.201593E-06 -0.552728E+01
 0.9134650E-03 -0.400000E-03 -0.533922E-03  0.186985E+02  0.141294E-06 -0.190876E-13  0.226606E-06 -0.552629E+01
 0.9198750E-03 -0.400000E-03 -0.521105E-03  0.186969E+02  0.162547E-06 -0.190793E-13  0.253720E-06 -0.552590E+01
 0.9262850E-03 -0.400000E-03 -0.508252E-03  0.186948E+02  0.185497E-06 -0.190832E-13  0.282838E-06 -0.552572E+01
 0.9326950E-03 -0.400000E-03 -0.495377E-03  0.186921E+02  0.210184E-06 -0.190944E-13  0.313932E-06 -0.552525E+01
 0.9391050E-03 -0.400000E-03 -0.482490E-03  0.186889E+02  0.236824E-06 -0.191285E-13  0.347322E-06 -0.552539E+01
 0.9455150E-03 -0.400000E-03 -0.469610E-03  0.186851E+02  0.265290E-06 -0.191739E-13  0.382754E-06 -0.552566E+01
 0.9519250E-03 -0.400000E-03 -0.456745E-03  0.186807E+02  0.295755E-06 -0.192344E-13  0.420395E-06 -0.552584E+01
 0.9583350E-03 -0.400000E-03 -0.443907E-03  0.186756E+02  0.328272E-06 -0.193141E-13  0.460299E-06 -0.552663E+01
 0.9647450E-03 -0.400000E-03 -0.431118E-03  0.186698E+02  0.362685E-06 -0.194006E-13  0.502103E-06 -0.552709E+01
 0.9711550E-03 -0.400000E-03 -0.418380E-03  0.186634E+02  0.399444E-06 -0.195139E-13  0.546387E-06 -0.552803E+01
 0.9775650E-03 -0.400000E-03 -0.405713E-03  0.186563E+02  0.438383E-06 -0.196457E-13  0.592814E-06 -0.552931E+01
 0.9839750E-03 -0.400000E-03 -0.393132E-03  0.186485E+02  0.479296E-06 -0.197848E-13  0.640936E-06 -0.553031E+01
 0.9903850E-03 -0.400000E-03 -0.380645E-03  0.186399E+02  0.522747E-06 -0.199514E-13  0.691423E-06 -0.553179E+01
 0.9967950E-03 -0.400000E-03 -0.368265E-03  0.186307E+02  0.568658E-06 -0.201407E-13  0.743974E-06 -0.553341E+01
 0.1003205E-02 -0.400000E-03 -0.356010E-03  0.186208E+02  0.616914E-06 -0.203481E-13  0.798278E-06 -0.553521E+01
 0.1009615E-02 -0.400000E-03 -0.343890E-03  0.186103E+02  0.667727E-06 -0.205773E-13  0.854376E-06 -0.553716E+01
 0.1016025E-02 -0.400000E-03 -0.331915E-03  0.185990E+02  0.721384E-06 -0.208333E-13  0.912373E-06 -0.553925E+01
 0.1022435E-02 -0.400000E-03 -0.320100E-03  0.185872E+02  0.777919E-06 -0.211154E-13  0.972034E-06 -0.554161E+01
 0.1028845E-02 -0.400000E-03 -0.308460E-03  0.185748E+02  0.837333E-06 -0.214211E-13  0.103304E-05 -0.554412E+01
 0.1035255E-02 -0.400000E-03 -0.297005E-03  0.185617E+02  0.899977E-06 -0.217550E-13  0.109544E-05 -0.554677E+01
 0.1041665E-02 -0.400000E-03 -0.285743E-03  0.185482E+02  0.966363E-06 -0.221235E-13  0.115941E-05 -0.554965E+01
 0.1048075E-02 -0.400000E-03 -0.274688E-03  0.185342E+02  0.103643E-05 -0.225209E-13  0.122434E-05 -0.555246E+01
 0.1054485E-02 -0.400000E-03 -0.263850E-03  0.185197E+02  0.111109E-05 -0.229621E-13  0.129081E-05 -0.555566E+01
 0.1060895E-02 -0.400000E-03 -0.253245E-03  0.185048E+02  0.119029E-05 -0.234414E-13  0.135810E-05 -0.555911E+01
 0.1067305E-02 -0.400000E-03 -0.242882E-03  0.184895E+02  0.127453E-05 -0.239604E-13  0.142606E-05 -0.556256E+01
 0.1073715E-02 -0.400000E-03 -0.232767E-03  0.184739E+02  0.136475E-05 -0.245280E-13  0.149477E-05 -0.556595E+01
 0.1080125E-02 -0.400000E-03 -0.222920E-03  0.184580E+02  0.146128E-05 -0.251475E-13  0.156381E-05 -0.556999E+01
 0.1086535E-02 -0.400000E-03 -0.213345E-03  0.184419E+02  0.156498E-05 -0.258228E-13  0.163292E-05 -0.557374E+01
 0.1092945E-02 -0.400000E-03 -0.204050E-03  0.184256E+02  0.167689E-05 -0.265632E-13  0.170203E-05 -0.557781E+01
 0.1099355E-02 -0.400000E-03 -0.195050E-03  0.184091E+02  0.179734E-05 -0.273678E-13  0.177014E-05 -0.558201E+01
 0.1105765E-02 -0.400000E-03 -0.186350E-03  0.183925E+02  0.192769E-05 -0.282482E-13  0.183705E-05 -0.558620E+01
 0.1112175E-02 -0.400000E-03 -0.177960E-03  0.183758E+02  0.206863E-05 -0.292095E-13  0.190197E-05 -0.559065E+01
 0.1118585E-02 -0.400000E-03 -0.169890E-03  0.183591E+02  0.222085E-05 -0.302562E-13  0.196377E-05 -0.559507E+01
 0.1125000E-02 -0.400000E-03 -0.162150E-03  0.183423E+02  0.238397E-05 -0.313809E-13  0.202037E-05 -0.560028E+01
 0.1131415E-02 -0.400000E-03 -0.154745E-03  0.183256E+02  0.255947E-05 -0.325960E-13  0.207113E-05 -0.560423E+01
 0.1137825E-02 -0.400000E-03 -0.147680E-03  0.183090E+02  0.274912E-05 -0.339246E-13  0.211555E-05 -0.560894E+01
 0.1144235E-02 -0.400000E-03 -0.140970E-03  0.182924E+02  0.295067E-05 -0.353431E-13  0.215018E-05 -0.561371E+01
 0.1150645E-02 -0.400000E-03 -0.134620E-03  0.182759E+02  0.316398E-05 -0.368525E-13  0.217306E-05 -0.561840E+01
 0.1157055E-02 -0.400000E-03 -0.128630E-03  0.182595E+02  0.338947E-05 -0.384626E-13  0.218280E-05 -0.562300E+01
 0.1163465E-02 -0.400000E-03 -0.123010E-03  0.182433E+02  0.362501E-05 -0.401598E-13  0.217678E-05 -0.562773E+01
 0.1169875E-02 -0.400000E-03 -0.117770E-03  0.182271E+02  0.386758E-05 -0.419222E-13  0.215219E-05 -0.563232E+01
 0.1176285E-02 -0.400000E-03 -0.112910E-03  0.182112E+02  0.411579E-05 -0.437475E-13  0.210742E-05 -0.563675E+01
 0.1182695E-02 -0.400000E-03 -0.108437E-03  0.181954E+02  0.436594E-05 -0.456127E-13  0.204042E-05 -0.564128E+01
 0.1189105E-02 -0.400000E-03 -0.104357E-03  0.181797E+02  0.461358E-05 -0.474871E-13  0.194944E-05 -0.564515E+01
 0.1195515E-02 -0.400000E-03 -0.100672E-03  0.181641E+02  0.485582E-05 -0.493611E-13  0.183382E-05 -0.564942E+01
 0.1201925E-02 -0.400000E-03 -0.973875E-04  0.181487E+02  0.508689E-05 -0.511924E-13  0.169297E-05 -0.565279E+01
 0.1208335E-02 -0.400000E-03 -0.945050E-04  0.181334E+02  0.530302E-05 -0.529623E-13  0.152728E-05 -0.565633E+01
 0.1214745E-02 -0.400000E-03 -0.920300E-04  0.181182E+02  0.549847E-05 -0.546271E-13  0.133781E-05 -0.565930E+01
 0.1221155E-02 -0.400000E-03 -0.899650E-04  0.181031E+02  0.566856E-05 -0.561490E-13  0.112656E-05 -0.566190E+01
 0.1227565E-02 -0.400000E-03 -0.883100E-04  0.180881E+02  0.580965E-05 -0.574923E-13  0.896326E-06 -0.566404E+01
 0.1233975E-02 -0.400000E-03 -0.870650E-04  0.180732E+02  0.591860E-05 -0.586145E-13  0.650650E-06 -0.566568E+01
 0.1240385E-02 -0.400000E-03 -0.862350E-04  0.180584E+02  0.599156E-05 -0.594530E-13  0.393375E-06 -0.566682E+01
 0.1246795E-02 -0.400000E-03 -0.858200E-04  0.180438E+02  0.602692E-05 -0.599522E-13  0.129164E-06 -0.530144E+01
 0.3205000E-05 -0.200000E-03 -0.858200E-04  0.192793E+02  0.602422E-05 -0.740328E-13 -0.137388E-06 -0.545250E+01
 0.9615000E-05 -0.200000E-03 -0.862350E-04  0.192651E+02  0.598449E-05 -0.735287E-13 -0.401266E-06 -0.567593E+01
 0.1602500E-04 -0.200000E-03 -0.870650E-04  0.192507E+02  0.590843E-05 -0.726532E-13 -0.657932E-06 -0.567473E+01
 0.2243500E-04 -0.200000E-03 -0.883100E-04  0.192363E+02  0.579764E-05 -0.714394E-13 -0.902800E-06 -0.567303E+01
 0.2884500E-04 -0.200000E-03 -0.899650E-04  0.192218E+02  0.565583E-05 -0.699418E-13 -0.113212E-05 -0.567086E+01
 0.3525500E-04 -0.200000E-03 -0.920300E-04  0.192071E+02  0.548592E-05 -0.681993E-13 -0.134242E-05 -0.566822E+01
 0.4166500E-04 -0.200000E-03 -0.945050E-04  0.191922E+02  0.529133E-05 -0.662503E-13 -0.153098E-05 -0.566516E+01
 0.4807500E-04 -0.200000E-03 -0.973875E-04  0.191772E+02  0.507652E-05 -0.641406E-13 -0.169585E-05 -0.566179E+01
 0.5448500E-04 -0.200000E-03 -0.100672E-03  0.191620E+02  0.484701E-05 -0.619258E-13 -0.183599E-05 -0.565805E+01
 0.6089500E-04 -0.200000E-03 -0.104357E-03  0.191466E+02  0.460641E-05 -0.596331E-13 -0.195104E-05 -0.565408E+01
 0.6730500E-04 -0.200000E-03 -0.108437E-03  0.191311E+02  0.436035E-05 -0.573190E-13 -0.204156E-05 -0.564988E+01
 0.7371500E-04 -0.200000E-03 -0.112910E-03  0.191154E+02  0.411165E-05 -0.550001E-13 -0.210823E-05 -0.564542E+01
 0.8012500E-04 -0.200000E-03 -0.117770E-03  0.190994E+02  0.386470E-05 -0.527187E-13 -0.215276E-05 -0.564091E+01
 0.8653500E-04 -0.200000E-03 -0.123010E-03  0.190834E+02  0.362318E-05 -0.505076E-13 -0.217721E-05 -0.563626E+01
 0.9294500E-04 -0.200000E-03 -0.128630E-03  0.190671E+02  0.338846E-05 -0.483723E-13 -0.218314E-05 -0.563145E+01
 0.9935500E-04 -0.200000E-03 -0.134620E-03  0.190508E+02  0.316361E-05 -0.463428E-13 -0.217336E-05 -0.562678E+01
 0.1057650E-03 -0.200000E-03 -0.140970E-03  0.190343E+02  0.295074E-05 -0.444382E-13 -0.215046E-05 -0.562201E+01
 0.1121750E-03 -0.200000E-03 -0.147680E-03  0.190177E+02  0.274949E-05 -0.426474E-13 -0.211584E-05 -0.561716E+01
 0.1185850E-03 -0.200000E-03 -0.154745E-03  0.190010E+02  0.256003E-05 -0.409696E-13 -0.207143E-05 -0.561238E+01
 0.1250000E-03 -0.200000E-03 -0.162150E-03  0.189842E+02  0.238462E-05 -0.394351E-13 -0.202067E-05 -0.560836E+01
 0.1314150E-03 -0.200000E-03 -0.169890E-03  0.189675E+02  0.222153E-05 -0.380160E-13 -0.196409E-05 -0.560307E+01
 0.1378250E-03 -0.200000E-03 -0.177960E-03  0.189507E+02  0.206930E-05 -0.366965E-13 -0.190229E-05 -0.559857E+01
 0.1442350E-03 -0.200000E-03 -0.186350E-03  0.189340E+02  0.192832E-05 -0.354856E-13 -0.183737E-05 -0.559405E+01
 0.1506450E-03 -0.200000E-03 -0.195050E-03  0.189174E+02  0.179792E-05 -0.343777E-13 -0.177044E-05 -0.558979E+01
 0.1570550E-03 -0.200000E-03 -0.204050E-03  0.189009E+02  0.167741E-05 -0.333666E-13 -0.170233E-05 -0.558551E+01
 0.1634650E-03 -0.200000E-03 -0.213345E-03  0.188846E+02  0.156544E-05 -0.324370E-13 -0.163320E-05 -0.558138E+01
 0.1698750E-03 -0.200000E-03 -0.222920E-03  0.188685E+02  0.146167E-05 -0.315903E-13 -0.156408E-05 -0.557751E+01
 0.1762850E-03 -0.200000E-03 -0.232767E-03  0.188526E+02  0.136510E-05 -0.308146E-13 -0.149502E-05 -0.557359E+01
 0.1826950E-03 -0.200000E-03 -0.242882E-03  0.188370E+02  0.127482E-05 -0.301045E-13 -0.142629E-05 -0.556992E+01
 0.1891050E-03 -0.200000E-03 -0.253245E-03  0.188217E+02  0.119054E-05 -0.294560E-13 -0.135832E-05 -0.556651E+01
 0.1955150E-03 -0.200000E-03 -0.263850E-03  0.188068E+02  0.111131E-05 -0.288579E-13 -0.129101E-05 -0.556294E+01
 0.2019250E-03 -0.200000E-03 -0.274688E-03  0.187923E+02  0.103663E-05 -0.283076E-13 -0.122452E-05 -0.555987E+01
 0.2083350E-03 -0.200000E-03 -0.285743E-03  0.187782E+02  0.966532E-06 -0.278124E-13 -0.115959E-05 -0.555680E+01
 0.2147450E-03 -0.200000E-03 -0.297005E-03  0.187647E+02  0.900125E-06 -0.273533E-13 -0.109560E-05 -0.555396E+01
 0.2211550E-03 -0.200000E-03 -0.308460E-03  0.187517E+02  0.837462E-06 -0.269376E-13 -0.103319E-05 -0.555126E+01
 0.2275650E-03 -0.200000E-03 -0.320100E-03  0.187392E+02  0.778032E-06 -0.265569E-13 -0.972176E-06 -0.554871E+01
 0.2339750E-03 -0.200000E-03 -0.331915E-03  0.187274E+02  0.721483E-06 -0.262054E-13 -0.912507E-06 -0.554631E+01
 0.2403850E-03 -0.200000E-03 -0.343890E-03  0.187162E+02  0.667814E-06 -0.258861E-13 -0.854502E-06 -0.554419E+01
 0.2467950E-03 -0.200000E-03 -0.356010E-03  0.187056E+02  0.616991E-06 -0.255999E-13 -0.798397E-06 -0.554221E+01
 0.2532050E-03 -0.200000E-03 -0.368265E-03  0.186957E+02  0.568725E-06 -0.253402E-13 -0.744086E-06 -0.554037E+01
 0.2596150E-03 -0.200000E-03 -0.380645E-03  0.186865E+02  0.522805E-06 -0.251024E-13 -0.691530E-06 -0.553868E+01
 0.2660250E-03 -0.200000E-03 -0.393133E-03  0.186780E+02  0.479347E-06 -0.248923E-13 -0.641038E-06 -0.553734E+01
 0.2724350E-03 -0.200000E-03 -0.405713E-03  0.186701E+02  0.438427E-06 -0.247159E-13 -0.592911E-06 -0.553612E+01
 0.2788450E-03 -0.200000E-03 -0.418380E-03  0.186630E+02  0.399482E-06 -0.245476E-13 -0.546480E-06 -0.553486E+01
 0.2852550E-03 -0.200000E-03 -0.431117E-03  0.186566E+02  0.362717E-06 -0.244014E-13 -0.502193E-06 -0.553407E+01
 0.2916650E-03 -0.200000E-03 -0.443907E-03  0.186508E+02  0.328300E-06 -0.242879E-13 -0.460386E-06 -0.553340E+01
 0.2980750E-03 -0.200000E-03 -0.456745E-03  0.186458E+02  0.295779E-06 -0.241818E-13 -0.420478E-06 -0.553268E+01
 0.3044850E-03 -0.200000E-03 -0.469610E-03  0.186413E+02  0.265310E-06 -0.240983E-13 -0.382834E-06 -0.553250E+01
 0.3108950E-03 -0.200000E-03 -0.482490E-03  0.186375E+02  0.236840E-06 -0.240327E-13 -0.347400E-06 -0.553218E+01
 0.3173050E-03 -0.200000E-03 -0.495378E-03  0.186343E+02  0.210198E-06 -0.239799E-13 -0.314008E-06 -0.553220E+01
 0.3237150E-03 -0.200000E-03 -0.508253E-03  0.186316E+02  0.185508E-06 -0.239544E-13 -0.282911E-06 -0.553248E+01
 0.3301250E-03 -0.200000E-03 -0.521105E-03  0.186295E+02  0.162557E-06 -0.239366E-13 -0.253791E-06 -0.553270E+01
 0.3365350E-03 -0.200000E-03 -0.533922E-03  0.186279E+02  0.141302E-06 -0.239326E-13 -0.226676E-06 -0.553326E+01
 0.3429450E-03 -0.200000E-03 -0.546687E-03  0.186267E+02  0.121770E-06 -0.239541E-13 -0.201662E-06 -0.553407E+01
 0.3493550E-03 -0.200000E-03 -0.559390E-03  0.186260E+02  0.103794E-06 -0.239827E-13 -0.178490E-06 -0.553483E+01
 0.3557650E-03 -0.200000E-03 -0.572015E-03  0.186256E+02  0.873360E-07 -0.240277E-13 -0.157182E-06 -0.553598E+01
 0.3621750E-03 -0.200000E-03 -0.584550E-03  0.186256E+02  0.723250E-07 -0.240861E-13 -0.137648E-06 -0.553713E+01
 0.3685850E-03 -0.200000E-03 -0.596985E-03  0.186259E+02  0.586428E-07 -0.241543E-13 -0.119763E-06 -0.553856E+01
 0.3750000E-03 -0.200000E-03 -0.609305E-03  0.186265E+02  0.463064E-07 -0.242470E-13 -0.103572E-06 -0.554072E+01
 0.3814150E-03 -0.200000E-03 -0.621495E-03  0.186273E+02  0.351831E-07 -0.243499E-13 -0.888882E-07 -0.554195E+01
 0.3878250E-03 -0.200000E-03 -0.633545E-03  0.186283E+02  0.251349E-07 -0.244518E-13 -0.755587E-07 -0.554379E+01
 0.3942350E-03 -0.200000E-03 -0.645440E-03  0.186294E+02  0.161486E-07 -0.245698E-13 -0.635983E-07 -0.554603E+01
 0.4006450E-03 -0.200000E-03 -0.657170E-03  0.186307E+02  0.815804E-08 -0.246976E-13 -0.529032E-07 -0.554814E+01
 0.4070550E-03 -0.200000E-03 -0.668723E-03  0.186321E+02  0.106966E-08 -0.248362E-13 -0.433785E-07 -0.555074E+01
 0.4134650E-03 -0.200000E-03 -0.680082E-03  0.186336E+02 -0.516004E-08 -0.249928E-13 -0.349738E-07 -0.555332E+01
 0.4198750E-03 -0.200000E-03 -0.691242E-03  0.186351E+02 -0.106147E-07 -0.251509E-13 -0.275557E-07 -0.555608E+01
 0.4262850E-03 -0.200000E-03 -0.702187E-03  0.186367E+02 -0.153555E-07 -0.253257E-13 -0.210829E-07 -0.555907E+01