#q:  0.341935E-11
Variables=X,Y,Z,P,U,V,W,Div
Zone  i = 195 j =   5 k =  35
 0.3205000E-05 -0.400000E-03 -0.491975E-03  0.157011E+02 -0.153805E-08  0.920481E-11 -0.174520E-07 -0.511098E+01
 0.9615000E-05 -0.400000E-03 -0.504487E-03  0.157017E+02 -0.327309E-08  0.894976E-11 -0.147645E-07 -0.528706E+01
 0.1602500E-04 -0.400000E-03 -0.516980E-03  0.157023E+02 -0.495521E-08  0.870149E-11 -0.122501E-07 -0.529224E+01
 0.2243500E-04 -0.400000E-03 -0.529438E-03  0.157030E+02 -0.654644E-08  0.846217E-11 -0.991376E-08 -0.529740E+01
 0.2884500E-04 -0.400000E-03 -0.541850E-03  0.157036E+02 -0.802542E-08  0.822801E-11 -0.774988E-08 -0.530208E+01
 0.3525500E-04 -0.400000E-03 -0.554207E-03  0.157042E+02 -0.938732E-08  0.799534E-11 -0.575165E-08 -0.530642E+01
 0.4166500E-04 -0.400000E-03 -0.566492E-03  0.157048E+02 -0.106329E-07  0.776896E-11 -0.392532E-08 -0.531036E+01
 0.4807500E-04 -0.400000E-03 -0.578692E-03  0.157054E+02 -0.117655E-07  0.754940E-11 -0.226831E-08 -0.531374E+01
 0.5448500E-04 -0.400000E-03 -0.590797E-03  0.157060E+02 -0.127859E-07  0.733292E-11 -0.773040E-09 -0.531643E+01
 0.6089500E-04 -0.400000E-03 -0.602795E-03  0.157065E+02 -0.137020E-07  0.711992E-11  0.565295E-09 -0.531857E+01
 0.6730500E-04 -0.400000E-03 -0.614668E-03  0.157071E+02 -0.145184E-07  0.691250E-11  0.174988E-08 -0.532022E+01
 0.7371500E-04 -0.400000E-03 -0.626408E-03  0.157076E+02 -0.152367E-07  0.670853E-11  0.278840E-08 -0.532114E+01
 0.8012500E-04 -0.400000E-03 -0.638003E-03  0.157081E+02 -0.158669E-07  0.650893E-11  0.368827E-08 -0.532186E+01
 0.8653500E-04 -0.400000E-03 -0.649438E-03  0.157086E+02 -0.164091E-07  0.631378E-11  0.445562E-08 -0.532203E+01
 0.9294500E-04 -0.400000E-03 -0.660705E-03  0.157090E+02 -0.168699E-07  0.612207E-11  0.509941E-08 -0.532199E+01
 0.9935500E-04 -0.400000E-03 -0.671788E-03  0.157095E+02 -0.172555E-07  0.593620E-11  0.562692E-08 -0.532187E+01
 0.1057650E-03 -0.400000E-03 -0.682678E-03  0.157099E+02 -0.175670E-07  0.575494E-11  0.604603E-08 -0.532145E+01
 0.1121750E-03 -0.400000E-03 -0.693368E-03  0.157103E+02 -0.178069E-07  0.557619E-11  0.636479E-08 -0.532106E+01
 0.1185850E-03 -0.400000E-03 -0.703838E-03  0.157106E+02 -0.179852E-07  0.540410E-11  0.659221E-08 -0.532086E+01
 0.1250000E-03 -0.400000E-03 -0.714080E-03  0.157110E+02 -0.181048E-07  0.523966E-11  0.673627E-08 -0.532112E+01
 0.1314150E-03 -0.400000E-03 -0.724088E-03  0.157113E+02 -0.181654E-07  0.507908E-11  0.680384E-08 -0.532048E+01
 0.1378250E-03 -0.400000E-03 -0.733848E-03  0.157116E+02 -0.181663E-07  0.492059E-11  0.680124E-08 -0.532047E+01
 0.1442350E-03 -0.400000E-03 -0.743353E-03  0.157119E+02 -0.181166E-07  0.476681E-11  0.673775E-08 -0.532069E+01
 0.1506450E-03 -0.400000E-03 -0.752588E-03  0.157122E+02 -0.180224E-07  0.461875E-11  0.662123E-08 -0.532122E+01
 0.1570550E-03 -0.400000E-03 -0.761542E-03  0.157124E+02 -0.178863E-07  0.447650E-11  0.645842E-08 -0.532184E+01
 0.1634650E-03 -0.400000E-03 -0.770215E-03  0.157127E+02 -0.177118E-07  0.433901E-11  0.625527E-08 -0.532268E+01
 0.1698750E-03 -0.400000E-03 -0.778592E-03  0.157129E+02 -0.175033E-07  0.420660E-11  0.601810E-08 -0.532380E+01
 0.1762850E-03 -0.400000E-03 -0.786665E-03  0.157131E+02 -0.172658E-07  0.407989E-11  0.575341E-08 -0.532505E+01
 0.1826950E-03 -0.400000E-03 -0.794425E-03  0.157133E+02 -0.170015E-07  0.395817E-11  0.546622E-08 -0.532651E+01
 0.1891050E-03 -0.400000E-03 -0.801863E-03  0.157135E+02 -0.167149E-07  0.384187E-11  0.516223E-08 -0.532810E+01
 0.1955150E-03 -0.400000E-03 -0.808972E-03  0.157136E+02 -0.164098E-07  0.373068E-11  0.484587E-08 -0.532983E+01
 0.2019250E-03 -0.400000E-03 -0.815747E-03  0.157138E+02 -0.160903E-07  0.362463E-11  0.452151E-08 -0.533171E+01
 0.2083350E-03 -0.400000E-03 -0.822183E-03  0.157139E+02 -0.157591E-07  0.352327E-11  0.419287E-08 -0.533363E+01
 0.2147450E-03 -0.400000E-03 -0.828268E-03  0.157140E+02 -0.154222E-07  0.342737E-11  0.386419E-08 -0.533574E+01
 0.2211550E-03 -0.400000E-03 -0.833995E-03  0.157141E+02 -0.150838E-07  0.333734E-11  0.353893E-08 -0.533781E+01
 0.2275650E-03 -0.400000E-03 -0.839362E-03  0.157142E+02 -0.147453E-07  0.325223E-11  0.321931E-08 -0.533992E+01
 0.2339750E-03 -0.400000E-03 -0.844360E-03  0.157143E+02 -0.144133E-07  0.317316E-11  0.290868E-08 -0.534207E+01
 0.2403850E-03 -0.400000E-03 -0.848985E-03  0.157144E+02 -0.140897E-07  0.309961E-11  0.260844E-08 -0.534412E+01
 0.2467950E-03 -0.400000E-03 -0.853235E-03  0.157145E+02 -0.137773E-07  0.303125E-11  0.231998E-08 -0.534613E+01
 0.2532050E-03 -0.400000E-03 -0.857105E-03  0.157145E+02 -0.134799E-07  0.296836E-11  0.204456E-08 -0.534803E+01
 0.2596150E-03 -0.400000E-03 -0.860587E-03  0.157146E+02 -0.132030E-07  0.291174E-11  0.178327E-08 -0.534987E+01
 0.2660250E-03 -0.400000E-03 -0.863682E-03  0.157147E+02 -0.129475E-07  0.286083E-11  0.153581E-08 -0.535145E+01
 0.2724350E-03 -0.400000E-03 -0.866385E-03  0.157147E+02 -0.127179E-07  0.281607E-11  0.130227E-08 -0.535294E+01
 0.2788450E-03 -0.400000E-03 -0.868688E-03  0.157148E+02 -0.125188E-07  0.277848E-11  0.108204E-08 -0.535418E+01
 0.2852550E-03 -0.400000E-03 -0.870595E-03  0.157148E+02 -0.123496E-07  0.274684E-11  0.873260E-09 -0.535510E+01
 0.2916650E-03 -0.400000E-03 -0.872105E-03  0.157148E+02 -0.122123E-07  0.272135E-11  0.674371E-09 -0.535580E+01
 0.2980750E-03 -0.400000E-03 -0.873213E-03  0.157149E+02 -0.121108E-07  0.270278E-11  0.483667E-09 -0.535616E+01
 0.3044850E-03 -0.400000E-03 -0.873917E-03  0.157149E+02 -0.120456E-07  0.269096E-11  0.298732E-09 -0.535621E+01
 0.3108950E-03 -0.400000E-03 -0.874222E-03  0.157150E+02 -0.120159E-07  0.268535E-11  0.117086E-09 -0.535591E+01
 0.3173050E-03 -0.400000E-03 -0.874125E-03  0.157150E+02 -0.120234E-07  0.268638E-11 -0.637377E-10 -0.535520E+01
 0.3237150E-03 -0.400000E-03 -0.873620E-03  0.157150E+02 -0.120704E-07  0.269497E-11 -0.246466E-09 -0.535417E+01
 0.3301250E-03 -0.400000E-03 -0.872712E-03  0.157151E+02 -0.121541E-07  0.271027E-11 -0.433674E-09 -0.535273E+01
 0.3365350E-03 -0.400000E-03 -0.871405E-03  0.157151E+02 -0.122725E-07  0.273193E-11 -0.627701E-09 -0.535101E+01
 0.3429450E-03 -0.400000E-03 -0.869695E-03  0.157152E+02 -0.124260E-07  0.276052E-11 -0.830951E-09 -0.534873E+01
 0.3493550E-03 -0.400000E-03 -0.867588E-03  0.157152E+02 -0.126112E-07  0.279543E-11 -0.104506E-08 -0.534636E+01
 0.3557650E-03 -0.400000E-03 -0.865085E-03  0.157153E+02 -0.128253E-07  0.283641E-11 -0.127126E-08 -0.534344E+01
 0.3621750E-03 -0.400000E-03 -0.862185E-03  0.157153E+02 -0.130684E-07  0.288434E-11 -0.151117E-08 -0.534028E+01
 0.3685850E-03 -0.400000E-03 -0.858892E-03  0.157154E+02 -0.133366E-07  0.293867E-11 -0.176527E-08 -0.533676E+01
 0.3750000E-03 -0.400000E-03 -0.855218E-03  0.157154E+02 -0.136221E-07  0.299754E-11 -0.203275E-08 -0.533359E+01
 0.3814150E-03 -0.400000E-03 -0.851160E-03  0.157155E+02 -0.139244E-07  0.306184E-11 -0.231345E-08 -0.532905E+01
 0.3878250E-03 -0.400000E-03 -0.846720E-03  0.157156E+02 -0.142433E-07  0.313290E-11 -0.260730E-08 -0.532453E+01
 0.3942350E-03 -0.400000E-03 -0.841907E-03  0.157157E+02 -0.145720E-07  0.320917E-11 -0.291220E-08 -0.532014E+01
 0.4006450E-03 -0.400000E-03 -0.836725E-03  0.157158E+02 -0.149072E-07  0.329094E-11 -0.322648E-08 -0.531512E+01
 0.4070550E-03 -0.400000E-03 -0.831175E-03  0.157159E+02 -0.152475E-07  0.337878E-11 -0.354854E-08 -0.531008E+01
 0.4134650E-03 -0.400000E-03 -0.825268E-03  0.157160E+02 -0.155865E-07  0.347175E-11 -0.387515E-08 -0.530484E+01
 0.4198750E-03 -0.400000E-03 -0.819010E-03  0.157161E+02 -0.159190E-07  0.356932E-11 -0.420273E-08 -0.529921E+01
 0.4262850E-03 -0.400000E-03 -0.812405E-03  0.157162E+02 -0.162437E-07  0.367264E-11 -0.452857E-08 -0.529340E+01
 0.4326950E-03 -0.400000E-03 -0.805460E-03  0.157164E+02 -0.165567E-07  0.378138E-11 -0.484869E-08 -0.528745E+01
 0.4391050E-03 -0.400000E-03 -0.798185E-03  0.157166E+02 -0.168524E-07  0.389497E-11 -0.515837E-08 -0.528121E+01
 0.4455150E-03 -0.400000E-03 -0.790585E-03  0.157167E+02 -0.171282E-07  0.401400E-11 -0.545347E-08 -0.527478E+01
 0.4519250E-03 -0.400000E-03 -0.782667E-03  0.157169E+02 -0.173803E-07  0.413853E-11 -0.572926E-08 -0.526821E+01
 0.4583350E-03 -0.400000E-03 -0.774443E-03  0.157171E+02 -0.176028E-07  0.426783E-11 -0.597980E-08 -0.526139E+01
 0.4647450E-03 -0.400000E-03 -0.765918E-03  0.157174E+02 -0.177920E-07  0.440240E-11 -0.619953E-08 -0.525432E+01
 0.4711550E-03 -0.400000E-03 -0.757103E-03  0.157176E+02 -0.179443E-07  0.454196E-11 -0.638212E-08 -0.524717E+01
 0.4775650E-03 -0.400000E-03 -0.748005E-03  0.157179E+02 -0.180559E-07  0.468712E-11 -0.652162E-08 -0.523978E+01
 0.4839750E-03 -0.400000E-03 -0.738635E-03  0.157181E+02 -0.181223E-07  0.483712E-11 -0.661096E-08 -0.523225E+01
 0.4903850E-03 -0.400000E-03 -0.729002E-03  0.157184E+02 -0.181389E-07  0.499216E-11 -0.664315E-08 -0.522454E+01
 0.4967950E-03 -0.400000E-03 -0.719115E-03  0.157188E+02 -0.181033E-07  0.515292E-11 -0.661096E-08 -0.521654E+01
 0.5032050E-03 -0.400000E-03 -0.708988E-03  0.157191E+02 -0.180120E-07  0.531878E-11 -0.650707E-08 -0.520885E+01
 0.5096150E-03 -0.400000E-03 -0.698630E-03  0.157195E+02 -0.178565E-07  0.548815E-11 -0.632268E-08 -0.520052E+01
 0.5160250E-03 -0.400000E-03 -0.688047E-03  0.157198E+02 -0.176383E-07  0.566404E-11 -0.605107E-08 -0.519227E+01
 0.5224350E-03 -0.400000E-03 -0.677255E-03  0.157202E+02 -0.173541E-07  0.584499E-11 -0.568422E-08 -0.518406E+01
 0.5288450E-03 -0.400000E-03 -0.666268E-03  0.157207E+02 -0.169966E-07  0.602943E-11 -0.521390E-08 -0.517565E+01
 0.5352550E-03 -0.400000E-03 -0.655092E-03  0.157211E+02 -0.165643E-07  0.621842E-11 -0.463227E-08 -0.516710E+01
 0.5416650E-03 -0.400000E-03 -0.643742E-03  0.157216E+02 -0.160560E-07  0.641226E-11 -0.393217E-08 -0.515871E+01
 0.5480750E-03 -0.400000E-03 -0.632225E-03  0.157221E+02 -0.154672E-07  0.661168E-11 -0.310508E-08 -0.515006E+01
 0.5544850E-03 -0.400000E-03 -0.620555E-03  0.157226E+02 -0.147971E-07  0.681552E-11 -0.214451E-08 -0.514147E+01
 0.5608950E-03 -0.400000E-03 -0.608748E-03  0.157231E+02 -0.140440E-07  0.702389E-11 -0.104408E-08 -0.513315E+01
 0.5673050E-03 -0.400000E-03 -0.596810E-03  0.157236E+02 -0.132021E-07  0.723665E-11  0.203876E-09 -0.512455E+01
 0.5737150E-03 -0.400000E-03 -0.584758E-03  0.157242E+02 -0.122706E-07  0.745325E-11  0.160480E-08 -0.511616E+01
 0.5801250E-03 -0.400000E-03 -0.572603E-03  0.157248E+02 -0.112473E-07  0.767455E-11  0.316521E-08 -0.510761E+01
 0.5865350E-03 -0.400000E-03 -0.560360E-03  0.157254E+02 -0.101351E-07  0.790139E-11  0.488954E-08 -0.509963E+01
 0.5929450E-03 -0.400000E-03 -0.548040E-03  0.157260E+02 -0.892497E-08  0.813224E-11  0.678232E-08 -0.509138E+01
 0.5993550E-03 -0.400000E-03 -0.535650E-03  0.157267E+02 -0.761515E-08  0.836955E-11  0.885263E-08 -0.508317E+01
 0.6057650E-03 -0.400000E-03 -0.523212E-03  0.157273E+02 -0.620996E-08  0.861198E-11  0.110994E-07 -0.507562E+01
 0.6121750E-03 -0.400000E-03 -0.510737E-03  0.157280E+02 -0.469734E-08  0.885931E-11  0.135280E-07 -0.506784E+01
 0.6185850E-03 -0.400000E-03 -0.498230E-03  0.157287E+02 -0.307140E-08  0.911683E-11  0.161552E-07 -0.506019E+01
 0.6250000E-03 -0.400000E-03 -0.485713E-03  0.157294E+02 -0.134814E-08  0.937339E-11  0.189540E-07 -0.505381E+01
 0.6314150E-03 -0.400000E-03 -0.473197E-03  0.157301E+02  0.494929E-09  0.963126E-11  0.219324E-07 -0.504579E+01
 0.6378250E-03 -0.400000E-03 -0.460692E-03  0.157308E+02  0.247153E-08  0.990755E-11  0.251426E-07 -0.503924E+01
 0.6442350E-03 -0.400000E-03 -0.448218E-03  0.157316E+02  0.457494E-08  0.101856E-10  0.285391E-07 -0.503269E+01
 0.6506450E-03 -0.400000E-03 -0.435780E-03  0.157324E+02  0.682808E-08  0.104709E-10  0.321459E-07 -0.502607E+01
 0.6570550E-03 -0.400000E-03 -0.423390E-03  0.157331E+02  0.924453E-08  0.107713E-10  0.359966E-07 -0.502026E+01
 0.6634650E-03 -0.400000E-03 -0.411070E-03  0.157339E+02  0.118217E-07  0.110725E-10  0.400448E-07 -0.501451E+01
 0.6698750E-03 -0.400000E-03 -0.398825E-03  0.157347E+02  0.146033E-07  0.113835E-10  0.443379E-07 -0.500875E+01
 0.6762850E-03 -0.400000E-03 -0.386667E-03  0.157355E+02  0.176084E-07  0.117075E-10  0.489011E-07 -0.500367E+01
 0.6826950E-03 -0.400000E-03 -0.374617E-03  0.157363E+02  0.208510E-07  0.120352E-10  0.537076E-07 -0.499857E+01
 0.6891050E-03 -0.400000E-03 -0.362682E-03  0.157372E+02  0.243742E-07  0.123718E-10  0.588022E-07 -0.499401E+01
 0.6955150E-03 -0.400000E-03 -0.350875E-03  0.157380E+02  0.282167E-07  0.127117E-10  0.641776E-07 -0.498927E+01
 0.7019250E-03 -0.400000E-03 -0.339205E-03  0.157388E+02  0.324556E-07  0.130678E-10  0.699274E-07 -0.498518E+01
 0.7083350E-03 -0.400000E-03 -0.327687E-03  0.157396E+02  0.371244E-07  0.134298E-10  0.760302E-07 -0.498146E+01
 0.7147450E-03 -0.400000E-03 -0.316335E-03  0.157404E+02  0.422965E-07  0.137937E-10  0.825100E-07 -0.497807E+01
 0.7211550E-03 -0.400000E-03 -0.305157E-03  0.157412E+02  0.480638E-07  0.141554E-10  0.894254E-07 -0.497529E+01
 0.7275650E-03 -0.400000E-03 -0.294170E-03  0.157419E+02  0.545076E-07  0.144941E-10  0.967828E-07 -0.497279E+01
 0.7339750E-03 -0.400000E-03 -0.283380E-03  0.157425E+02  0.617876E-07  0.147864E-10  0.104671E-06 -0.496957E+01
 0.7403850E-03 -0.400000E-03 -0.272798E-03  0.157431E+02  0.700583E-07  0.150012E-10  0.113214E-06 -0.496493E+01
 0.7467950E-03 -0.400000E-03 -0.262440E-03  0.157435E+02  0.793830E-07  0.150902E-10  0.122304E-06 -0.495545E+01
 0.7532050E-03 -0.400000E-03 -0.252315E-03  0.157437E+02  0.900066E-07  0.150044E-10  0.132036E-06 -0.494079E+01
 0.7596150E-03 -0.400000E-03 -0.242427E-03  0.157437E+02  0.102264E-06  0.147187E-10  0.142687E-06 -0.492170E+01
 0.7660250E-03 -0.400000E-03 -0.232795E-03  0.157434E+02  0.116248E-06  0.141683E-10  0.154090E-06 -0.489733E+01
 0.7724350E-03 -0.400000E-03 -0.223425E-03  0.157427E+02  0.132310E-06  0.133234E-10  0.166384E-06 -0.486813E+01
 0.7788450E-03 -0.400000E-03 -0.214327E-03  0.157416E+02  0.150748E-06  0.121558E-10  0.179608E-06 -0.483468E+01
 0.7852550E-03 -0.400000E-03 -0.205513E-03  0.157398E+02  0.172004E-06  0.106479E-10  0.193879E-06 -0.479751E+01
 0.7916650E-03 -0.400000E-03 -0.196988E-03  0.157374E+02  0.196438E-06  0.878829E-11  0.209238E-06 -0.475774E+01
 0.7980750E-03 -0.400000E-03 -0.188762E-03  0.157340E+02  0.224445E-06  0.656745E-11  0.225615E-06 -0.471581E+01
 0.8044850E-03 -0.400000E-03 -0.180845E-03  0.157296E+02  0.256616E-06  0.399532E-11  0.243053E-06 -0.467249E+01
 0.8108950E-03 -0.400000E-03 -0.173245E-03  0.157240E+02  0.293493E-06  0.108521E-11  0.261537E-06 -0.462872E+01
 0.8173050E-03 -0.400000E-03 -0.165967E-03  0.157169E+02  0.335761E-06 -0.214751E-11  0.281094E-06 -0.458527E+01
 0.8237150E-03 -0.400000E-03 -0.159022E-03  0.157081E+02  0.383744E-06 -0.567331E-11  0.301233E-06 -0.454180E+01
 0.8301250E-03 -0.400000E-03 -0.152417E-03  0.156974E+02  0.438454E-06 -0.947275E-11  0.322166E-06 -0.450026E+01
 0.8365350E-03 -0.400000E-03 -0.146160E-03  0.156845E+02  0.499770E-06 -0.134941E-10  0.342953E-06 -0.445964E+01
 0.8429450E-03 -0.400000E-03 -0.140255E-03  0.156692E+02  0.568538E-06 -0.177056E-10  0.363284E-06 -0.442075E+01
 0.8493550E-03 -0.400000E-03 -0.134705E-03  0.156512E+02  0.645850E-06 -0.220840E-10  0.382879E-06 -0.438388E+01
 0.8557650E-03 -0.400000E-03 -0.129523E-03  0.156303E+02  0.731292E-06 -0.265698E-10  0.400618E-06 -0.434982E+01
 0.8621750E-03 -0.400000E-03 -0.124708E-03  0.156062E+02  0.825022E-06 -0.311216E-10  0.415470E-06 -0.431761E+01
 0.8685850E-03 -0.400000E-03 -0.120268E-03  0.155789E+02  0.926909E-06 -0.356894E-10  0.426468E-06 -0.428851E+01
 0.8750000E-03 -0.400000E-03 -0.116210E-03  0.155480E+02  0.103461E-05 -0.401817E-10  0.431567E-06 -0.426236E+01
 0.8814150E-03 -0.400000E-03 -0.112532E-03  0.155137E+02  0.114755E-05 -0.445419E-10  0.429906E-06 -0.423789E+01
 0.8878250E-03 -0.400000E-03 -0.109243E-03  0.154759E+02  0.126466E-05 -0.487400E-10  0.419895E-06 -0.421663E+01
 0.8942350E-03 -0.400000E-03 -0.106345E-03  0.154347E+02  0.138226E-05 -0.526717E-10  0.399869E-06 -0.419851E+01
 0.9006450E-03 -0.400000E-03 -0.103842E-03  0.153902E+02  0.149613E-05 -0.562409E-10  0.369135E-06 -0.418351E+01
 0.9070550E-03 -0.400000E-03 -0.101735E-03  0.153428E+02  0.160217E-05 -0.593588E-10  0.327049E-06 -0.417089E+01
 0.9134650E-03 -0.400000E-03 -0.100025E-03  0.152928E+02  0.169751E-05 -0.620021E-10  0.273785E-06 -0.416196E+01
 0.9198750E-03 -0.400000E-03 -0.987175E-04  0.152406E+02  0.177495E-05 -0.640030E-10  0.210164E-06 -0.415536E+01
 0.9262850E-03 -0.400000E-03 -0.978100E-04  0.151867E+02  0.183229E-05 -0.653586E-10  0.138248E-06 -0.415188E+01
 0.9326950E-03 -0.400000E-03 -0.973050E-04  0.151317E+02  0.186562E-05 -0.659946E-10  0.603489E-07 -0.415115E+01
 0.9391050E-03 -0.400000E-03 -0.972075E-04  0.150763E+02  0.187116E-05 -0.658327E-10 -0.202394E-07 -0.415346E+01
 0.9455150E-03 -0.400000E-03 -0.975125E-04  0.150210E+02  0.185068E-05 -0.649456E-10 -0.996948E-07 -0.415853E+01
 0.9519250E-03 -0.400000E-03 -0.982175E-04  0.149665E+02  0.180586E-05 -0.633727E-10 -0.174872E-06 -0.416633E+01
 0.9583350E-03 -0.400000E-03 -0.993250E-04  0.149134E+02  0.173799E-05 -0.611291E-10 -0.243114E-06 -0.417705E+01
 0.9647450E-03 -0.400000E-03 -0.100833E-03  0.148622E+02  0.165208E-05 -0.583261E-10 -0.301961E-06 -0.419095E+01
 0.9711550E-03 -0.400000E-03 -0.102740E-03  0.148134E+02  0.155165E-05 -0.550139E-10 -0.349700E-06 -0.420733E+01
 0.9775650E-03 -0.400000E-03 -0.105045E-03  0.147674E+02  0.144112E-05 -0.512758E-10 -0.386029E-06 -0.422645E+01
 0.9839750E-03 -0.400000E-03 -0.107745E-03  0.147246E+02  0.132459E-05 -0.471970E-10 -0.411257E-06 -0.424848E+01
 0.9903850E-03 -0.400000E-03 -0.110840E-03  0.146850E+02  0.120709E-05 -0.429002E-10 -0.426099E-06 -0.427325E+01
 0.9967950E-03 -0.400000E-03 -0.114322E-03  0.146489E+02  0.109089E-05 -0.384247E-10 -0.431614E-06 -0.430093E+01
 0.1003205E-02 -0.400000E-03 -0.118193E-03  0.146163E+02  0.979839E-06 -0.339016E-10 -0.429746E-06 -0.433122E+01
 0.1009615E-02 -0.400000E-03 -0.122442E-03  0.145872E+02  0.874804E-06 -0.293456E-10 -0.421433E-06 -0.436431E+01
 0.1016025E-02 -0.400000E-03 -0.127068E-03  0.145615E+02  0.777996E-06 -0.248623E-10 -0.408818E-06 -0.439961E+01
 0.1022435E-02 -0.400000E-03 -0.132068E-03  0.145390E+02  0.687989E-06 -0.204311E-10 -0.392094E-06 -0.443722E+01
 0.1028845E-02 -0.400000E-03 -0.137433E-03  0.145195E+02  0.606887E-06 -0.161566E-10 -0.373549E-06 -0.447751E+01
 0.1035255E-02 -0.400000E-03 -0.143160E-03  0.145029E+02  0.534000E-06 -0.120624E-10 -0.353521E-06 -0.451952E+01
 0.1041665E-02 -0.400000E-03 -0.149245E-03  0.144888E+02  0.468410E-06 -0.816710E-11 -0.332512E-06 -0.456357E+01
 0.1048075E-02 -0.400000E-03 -0.155680E-03  0.144770E+02  0.410516E-06 -0.452649E-11 -0.311729E-06 -0.460934E+01
 0.1054485E-02 -0.400000E-03 -0.162458E-03  0.144673E+02  0.359209E-06 -0.115522E-11 -0.291099E-06 -0.465640E+01
 0.1060895E-02 -0.400000E-03 -0.169567E-03  0.144594E+02  0.314250E-06  0.191863E-11 -0.271307E-06 -0.470471E+01
 0.1067305E-02 -0.400000E-03 -0.177005E-03  0.144530E+02  0.274924E-06  0.467511E-11 -0.252416E-06 -0.475366E+01
 0.1073715E-02 -0.400000E-03 -0.184762E-03  0.144480E+02  0.240407E-06  0.710030E-11 -0.234375E-06 -0.480288E+01
 0.1080125E-02 -0.400000E-03 -0.192835E-03  0.144441E+02  0.210262E-06  0.918346E-11 -0.217389E-06 -0.485187E+01
 0.1086535E-02 -0.400000E-03 -0.201212E-03  0.144412E+02  0.183936E-06  0.109216E-10 -0.201412E-06 -0.490021E+01
 0.1092945E-02 -0.400000E-03 -0.209885E-03  0.144391E+02  0.161135E-06  0.123272E-10 -0.186611E-06 -0.494701E+01
 0.1099355E-02 -0.400000E-03 -0.218842E-03  0.144377E+02  0.141369E-06  0.134134E-10 -0.172893E-06 -0.499156E+01
 0.1105765E-02 -0.400000E-03 -0.228077E-03  0.144368E+02  0.124121E-06  0.141909E-10 -0.160066E-06 -0.503260E+01
 0.1112175E-02 -0.400000E-03 -0.237583E-03  0.144363E+02  0.109043E-06  0.146905E-10 -0.148126E-06 -0.506994E+01
 0.1118585E-02 -0.400000E-03 -0.247340E-03  0.144362E+02  0.959723E-07  0.149603E-10 -0.137161E-06 -0.510272E+01
 0.1125000E-02 -0.400000E-03 -0.257345E-03  0.144363E+02  0.846435E-07  0.150379E-10 -0.127058E-06 -0.513047E+01
 0.1131415E-02 -0.400000E-03 -0.267590E-03  0.144366E+02  0.746671E-07  0.149525E-10 -0.117614E-06 -0.515180E+01
 0.1137825E-02 -0.400000E-03 -0.278062E-03  0.144371E+02  0.657922E-07  0.147584E-10 -0.108681E-06 -0.516684E+01
 0.1144235E-02 -0.400000E-03 -0.288750E-03  0.144377E+02  0.579884E-07  0.144835E-10 -0.100430E-06 -0.517856E+01
 0.1150645E-02 -0.400000E-03 -0.299640E-03  0.144384E+02  0.511175E-07  0.141621E-10 -0.927823E-07 -0.518860E+01
 0.1157055E-02 -0.400000E-03 -0.310725E-03  0.144391E+02  0.449824E-07  0.138107E-10 -0.855838E-07 -0.519802E+01
 0.1163465E-02 -0.400000E-03 -0.321992E-03  0.144399E+02  0.394893E-07  0.134556E-10 -0.788465E-07 -0.520731E+01
 0.1169875E-02 -0.400000E-03 -0.333427E-03  0.144407E+02  0.345713E-07  0.131097E-10 -0.725580E-07 -0.521620E+01
 0.1176285E-02 -0.400000E-03 -0.345022E-03  0.144415E+02  0.301220E-07  0.127650E-10 -0.666156E-07 -0.522420E+01
 0.1182695E-02 -0.400000E-03 -0.356763E-03  0.144424E+02  0.260863E-07  0.124314E-10 -0.610453E-07 -0.523176E+01
 0.1189105E-02 -0.400000E-03 -0.368635E-03  0.144432E+02  0.224172E-07  0.121039E-10 -0.557948E-07 -0.523811E+01
 0.1195515E-02 -0.400000E-03 -0.380630E-03  0.144440E+02  0.190546E-07  0.117803E-10 -0.508291E-07 -0.524385E+01
 0.1201925E-02 -0.400000E-03 -0.392733E-03  0.144449E+02  0.159825E-07  0.114700E-10 -0.461742E-07 -0.524881E+01
 0.1208335E-02 -0.400000E-03 -0.404935E-03  0.144457E+02  0.131512E-07  0.111617E-10 -0.417624E-07 -0.525301E+01
 0.1214745E-02 -0.400000E-03 -0.417222E-03  0.144465E+02  0.105403E-07  0.108594E-10 -0.375986E-07 -0.525695E+01
 0.1221155E-02 -0.400000E-03 -0.429578E-03  0.144473E+02  0.814348E-08  0.105697E-10 -0.336982E-07 -0.526073E+01
 0.1227565E-02 -0.400000E-03 -0.441990E-03  0.144481E+02  0.593370E-08  0.102884E-10 -0.300330E-07 -0.526434E+01
 0.1233975E-02 -0.400000E-03 -0.454450E-03  0.144489E+02  0.388096E-08  0.100080E-10 -0.265677E-07 -0.526806E+01
 0.1240385E-02 -0.400000E-03 -0.466942E-03  0.144497E+02  0.196617E-08  0.973547E-11 -0.233162E-07 -0.527221E+01
 0.1246795E-02 -0.400000E-03 -0.479455E-03  0.144504E+02  0.164865E-09  0.946696E-11 -0.202547E-07 -0.498049E+01
 0.3205000E-05 -0.200000E-03 -0.491975E-03  0.157011E+02 -0.153830E-08  0.844517E-11 -0.174505E-07 -0.511555E+01
 0.9615000E-05 -0.200000E-03 -0.504487E-03  0.157017E+02 -0.327327E-08  0.826723E-11 -0.147631E-07 -0.529393E+01
 0.1602500E-04 -0.200000E-03 -0.516980E-03  0.157023E+02 -0.495534E-08  0.808895E-11 -0.122488E-07 -0.529918E+01
 0.2243500E-04 -0.200000E-03 -0.529438E-03  0.157030E+02 -0.654652E-08  0.791299E-11 -0.991262E-08 -0.530441E+01
 0.2884500E-04 -0.200000E-03 -0.541850E-03  0.157036E+02 -0.802547E-08  0.773641E-11 -0.774885E-08 -0.530916E+01
 0.3525500E-04 -0.200000E-03 -0.554207E-03  0.157042E+02 -0.938734E-08  0.755637E-11 -0.575072E-08 -0.531357E+01
 0.4166500E-04 -0.200000E-03 -0.566492E-03  0.157048E+02 -0.106329E-07  0.737780E-11 -0.392447E-08 -0.531759E+01
 0.4807500E-04 -0.200000E-03 -0.578692E-03  0.157054E+02 -0.117655E-07  0.720165E-11 -0.226754E-08 -0.532105E+01
 0.5448500E-04 -0.200000E-03 -0.590797E-03  0.157060E+02 -0.127859E-07  0.702479E-11 -0.772342E-09 -0.532381E+01
 0.6089500E-04 -0.200000E-03 -0.602795E-03  0.157065E+02 -0.137019E-07  0.684796E-11  0.565931E-09 -0.532603E+01
 0.6730500E-04 -0.200000E-03 -0.614668E-03  0.157071E+02 -0.145183E-07  0.667345E-11  0.175046E-08 -0.532777E+01
 0.7371500E-04 -0.200000E-03 -0.626408E-03  0.157076E+02 -0.152367E-07  0.649955E-11  0.278893E-08 -0.532877E+01
 0.8012500E-04 -0.200000E-03 -0.638003E-03  0.157081E+02 -0.158669E-07  0.632741E-11  0.368876E-08 -0.532958E+01
 0.8653500E-04 -0.200000E-03 -0.649438E-03  0.157086E+02 -0.164090E-07  0.615732E-11  0.445607E-08 -0.532984E+01
 0.9294500E-04 -0.200000E-03 -0.660705E-03  0.157090E+02 -0.168698E-07  0.598858E-11  0.509983E-08 -0.532990E+01
 0.9935500E-04 -0.200000E-03 -0.671788E-03  0.157095E+02 -0.172554E-07  0.582367E-11  0.562730E-08 -0.532986E+01
 0.1057650E-03 -0.200000E-03 -0.682678E-03  0.157099E+02 -0.175670E-07  0.566160E-11  0.604639E-08 -0.532954E+01
 0.1121750E-03 -0.200000E-03 -0.693368E-03  0.157103E+02 -0.178069E-07  0.550049E-11  0.636512E-08 -0.532925E+01
 0.1185850E-03 -0.200000E-03 -0.703838E-03  0.157106E+02 -0.179851E-07  0.534452E-11  0.659252E-08 -0.532915E+01
 0.1250000E-03 -0.200000E-03 -0.714080E-03  0.157110E+02 -0.181048E-07  0.519478E-11  0.673655E-08 -0.532952E+01
 0.1314150E-03 -0.200000E-03 -0.724088E-03  0.157113E+02 -0.181654E-07  0.504770E-11  0.680410E-08 -0.532897E+01
 0.1378250E-03 -0.200000E-03 -0.733848E-03  0.157116E+02 -0.181662E-07  0.490167E-11  0.680149E-08 -0.532906E+01
 0.1442350E-03 -0.200000E-03 -0.743353E-03  0.157119E+02 -0.181166E-07  0.475932E-11  0.673798E-08 -0.532938E+01
 0.1506450E-03 -0.200000E-03 -0.752588E-03  0.157122E+02 -0.180224E-07  0.462176E-11  0.662144E-08 -0.533001E+01
 0.1570550E-03 -0.200000E-03 -0.761542E-03  0.157124E+02 -0.178863E-07  0.448914E-11  0.645862E-08 -0.533074E+01
 0.1634650E-03 -0.200000E-03 -0.770215E-03  0.157127E+02 -0.177118E-07  0.436052E-11  0.625546E-08 -0.533168E+01
 0.1698750E-03 -0.200000E-03 -0.778592E-03  0.157129E+02 -0.175033E-07  0.423625E-11  0.601828E-08 -0.533290E+01
 0.1762850E-03 -0.200000E-03 -0.786665E-03  0.157131E+02 -0.172657E-07  0.411703E-11  0.575358E-08 -0.533425E+01
 0.1826950E-03 -0.200000E-03 -0.794425E-03  0.157133E+02 -0.170014E-07  0.400218E-11  0.546639E-08 -0.533582E+01
 0.1891050E-03 -0.200000E-03 -0.801863E-03  0.157135E+02 -0.167149E-07  0.389220E-11  0.516239E-08 -0.533751E+01
 0.1955150E-03 -0.200000E-03 -0.808972E-03  0.157136E+02 -0.164098E-07  0.378682E-11  0.484602E-08 -0.533934E+01
 0.2019250E-03 -0.200000E-03 -0.815747E-03  0.157138E+02 -0.160903E-07  0.368610E-11  0.452165E-08 -0.534132E+01
 0.2083350E-03 -0.200000E-03 -0.822183E-03  0.157139E+02 -0.157591E-07  0.358963E-11  0.419301E-08 -0.534333E+01
 0.2147450E-03 -0.200000E-03 -0.828268E-03  0.157140E+02 -0.154222E-07  0.349822E-11  0.386432E-08 -0.534554E+01
 0.2211550E-03 -0.200000E-03 -0.833995E-03  0.157141E+02 -0.150838E-07  0.341231E-11  0.353906E-08 -0.534770E+01
 0.2275650E-03 -0.200000E-03 -0.839362E-03  0.157142E+02 -0.147452E-07  0.333094E-11  0.321943E-08 -0.534990E+01
 0.2339750E-03 -0.200000E-03 -0.844360E-03  0.157143E+02 -0.144133E-07  0.325529E-11  0.290879E-08 -0.535214E+01
 0.2403850E-03 -0.200000E-03 -0.848985E-03  0.157144E+02 -0.140897E-07  0.318484E-11  0.260855E-08 -0.535427E+01
 0.2467950E-03 -0.200000E-03 -0.853235E-03  0.157145E+02 -0.137772E-07  0.311928E-11  0.232009E-08 -0.535637E+01
 0.2532050E-03 -0.200000E-03 -0.857105E-03  0.157145E+02 -0.134799E-07  0.305890E-11  0.204467E-08 -0.535834E+01
 0.2596150E-03 -0.200000E-03 -0.860587E-03  0.157146E+02 -0.132029E-07  0.300452E-11  0.178338E-08 -0.536025E+01
 0.2660250E-03 -0.200000E-03 -0.863682E-03  0.157147E+02 -0.129475E-07  0.295558E-11  0.153591E-08 -0.536190E+01
 0.2724350E-03 -0.200000E-03 -0.866385E-03  0.157147E+02 -0.127179E-07  0.291253E-11  0.130237E-08 -0.536345E+01
 0.2788450E-03 -0.200000E-03 -0.868688E-03  0.157148E+02 -0.125188E-07  0.287638E-11  0.108214E-08 -0.536474E+01
 0.2852550E-03 -0.200000E-03 -0.870595E-03  0.157148E+02 -0.123495E-07  0.284595E-11  0.873357E-09 -0.536571E+01
 0.2916650E-03 -0.200000E-03 -0.872105E-03  0.157148E+02 -0.122123E-07  0.282143E-11  0.674467E-09 -0.536645E+01
 0.2980750E-03 -0.200000E-03 -0.873213E-03  0.157149E+02 -0.121108E-07  0.280357E-11  0.483762E-09 -0.536683E+01
 0.3044850E-03 -0.200000E-03 -0.873917E-03  0.157149E+02 -0.120456E-07  0.279223E-11  0.298826E-09 -0.536691E+01
 0.3108950E-03 -0.200000E-03 -0.874222E-03  0.157150E+02 -0.120159E-07  0.278686E-11  0.117179E-09 -0.536661E+01
 0.3173050E-03 -0.200000E-03 -0.874125E-03  0.157150E+02 -0.120234E-07  0.278789E-11 -0.636441E-10 -0.536590E+01
 0.3237150E-03 -0.200000E-03 -0.873620E-03  0.157150E+02 -0.120704E-07  0.279625E-11 -0.246372E-09 -0.536487E+01
 0.3301250E-03 -0.200000E-03 -0.872712E-03  0.157151E+02 -0.121541E-07  0.281106E-11 -0.433580E-09 -0.536340E+01
 0.3365350E-03 -0.200000E-03 -0.871405E-03  0.157151E+02 -0.122725E-07  0.283200E-11 -0.627606E-09 -0.536167E+01
 0.3429450E-03 -0.200000E-03 -0.869695E-03  0.157152E+02 -0.124260E-07  0.285964E-11 -0.830855E-09 -0.535935E+01
 0.3493550E-03 -0.200000E-03 -0.867588E-03  0.157152E+02 -0.126112E-07  0.289333E-11 -0.104496E-08 -0.535694E+01
 0.3557650E-03 -0.200000E-03 -0.865085E-03  0.157153E+02 -0.128253E-07  0.293286E-11 -0.127116E-08 -0.535397E+01
 0.3621750E-03 -0.200000E-03 -0.862185E-03  0.157153E+02 -0.130684E-07  0.297907E-11 -0.151107E-08 -0.535075E+01
 0.3685850E-03 -0.200000E-03 -0.858892E-03  0.157154E+02 -0.133366E-07  0.303143E-11 -0.176517E-08 -0.534717E+01
 0.3750000E-03 -0.200000E-03 -0.855218E-03  0.157154E+02 -0.136221E-07  0.308805E-11 -0.203265E-08 -0.534395E+01
 0.3814150E-03 -0.200000E-03 -0.851160E-03  0.157155E+02 -0.139244E-07  0.314982E-11 -0.231334E-08 -0.533932E+01
 0.3878250E-03 -0.200000E-03 -0.846720E-03  0.157156E+02 -0.142433E-07  0.321805E-11 -0.260719E-08 -0.533472E+01
 0.3942350E-03 -0.200000E-03 -0.841907E-03  0.157157E+02 -0.145720E-07  0.329119E-11 -0.291208E-08 -0.533026E+01
 0.4006450E-03 -0.200000E-03 -0.836725E-03  0.157158E+02 -0.149072E-07  0.336950E-11 -0.322636E-08 -0.532516E+01
 0.4070550E-03 -0.200000E-03 -0.831175E-03  0.157159E+02 -0.152475E-07  0.345352E-11 -0.354842E-08 -0.532003E+01
 0.4134650E-03 -0.200000E-03 -0.825268E-03  0.157160E+02 -0.155865E-07  0.354231E-11 -0.387502E-08 -0.531471E+01
 0.4198750E-03 -0.200000E-03 -0.819010E-03  0.157161E+02 -0.159190E-07  0.363531E-11 -0.420260E-08 -0.530899E+01
 0.4262850E-03 -0.200000E-03 -0.812405E-03  0.157162E+02 -0.162436E-07  0.373362E-11 -0.452843E-08 -0.530309E+01